#LAMMPS 100 water

40 atoms
24 angles
4 atom types
6 angle types

0.0 8.0411057168277760 xlo xhi
0.0 8.0411057168277760 ylo yhi
0.0 8.0411057168277760 zlo zhi


Masses

1 137.327 #Ba
2 91.224  # Zr
3 47.867  # Ti
4 15.999  # O

Angle Coeffs

1 0.0 180.00
2 0.0 180.00
3 0.0 180.00
4 0.0 180.00
5 0.0 180.00
6 0.0 180.00

Atoms

1 1 1 1.34730  0.0153906763    0.0074396310    0.0095809775
2 1 1 1.34730  8.0375322494    8.0297565002    4.0227915022
3 1 1 1.34730  4.0120035548    8.0352445549    0.0041065927
4 1 1 1.34730  4.0202987595    0.0134431205    4.0198854466
5 1 1 1.34730  8.0289346992    4.0104717242    0.0025136496
6 1 1 1.34730  8.0349269312    4.0184493052    4.0085691986
7 1 1 1.34730  4.0222254084    4.0196699450    0.0083032458
8 1 1 1.34730  4.0138071748    4.0099434235    4.0144802154
9 1 3  1.28904    2.0978858842    2.0875233113    1.9186142569
10 1 3 1.28904    2.0833258541    2.0992150790    5.9594636703
11 1 3 1.28904    6.1253412278    2.0985235439    1.9302682314
12 1 3 1.28904    6.1188399938    2.0841275523    6.1163761990
13 1 3 1.28904    2.0897024509    6.1122133186    2.0791396545
14 1 3 1.28904    2.0777268322    6.0958770082    6.0970534220
15 1 3 1.28904    6.1189541775    6.1050486934    1.9269384096
16 1 3 1.28904    6.1106453030    6.1149521192    6.0953881090
17 1 4 -0.87878    2.0137799390    2.0048374253    8.0404527790
18 1 4 -0.87878    2.0112606605    2.0141739531    4.0306315803
19 1 4 -0.87878    6.0418230874    2.0105498268    8.0319380522
20 1 4 -0.87878    6.0197486439    2.0192704060    4.0090902622
21 1 4 -0.87878    2.0243234368    6.0378419359    8.0266574581
22 1 4 -0.87878    2.0139037720    6.0346182566    4.0156268771
23 1 4 -0.87878    6.0287699604    6.0175518139    0.0121292039
24 1 4 -0.87878    6.0333043400    6.0206733711    4.0064970056
25 1 4 -0.87878    2.0199064574    0.0136401276    2.0113708237
26 1 4 -0.87878    2.0061569707    8.0380685912    6.0248121282
27 1 4 -0.87878    6.0269398048    8.0307487727    2.0149024773
28 1 4 -0.87878    6.0154643428    0.0067094986    6.0285303355
29 1 4 -0.87878    2.0210724177    4.0274336326    2.0243330861
30 1 4 -0.87878    2.0010822289    4.0324360044    6.0430573971
31 1 4 -0.87878    6.0262555067    4.0304008006    2.0134349755
32 1 4 -0.87878    6.0278886553    4.0232056192    6.0216945915
33 1 4 -0.87878    0.0134752850    2.0000473386    2.0092061580
34 1 4 -0.87878    0.0147827687    2.0186046024    6.0409449986
35 1 4 -0.87878    4.0051975629    2.0174121064    2.0232089395
36 1 4 -0.87878    4.0223733647    1.9972104365    6.0246424609
37 1 4 -0.87878    0.0118863625    6.0352157108    2.0150745570
38 1 4 -0.87878    0.0056898864    6.0359329774    6.0315151939
39 1 4 -0.87878    4.0131212685    6.0306475586    2.0017608983
40 1 4 -0.87878    4.0110957140    6.0427952570    6.0181146913

Angles

1 6 17 21 17
2 6 18 22 18
3 6 19 23 19
4 6 20 24 20
5 6 21 17 21
6 6 22 18 22
7 6 23 19 23
8 6 24 20 24
9 6 25 27 25
10 6 26 28 26
11 6 27 25 27
12 6 28 26 28
13 6 29 31 29
14 6 30 32 30
15 6 31 29 31
16 6 32 30 32
17 6 33 34 33
18 6 34 33 34
19 6 35 36 35
20 6 36 35 36
21 6 37 38 37
22 6 38 37 38
23 6 39 40 39
24 6 40 39 40
