#LAMMPS 100 water

40 atoms
24 angles
4 atom types
6 angle types

0.0 8.0223021268569246 xlo xhi
0.0 8.0206484478683375 ylo yhi
0.0 8.0276819208585116 zlo zhi


Masses

1 137.327 #Ba
2 91.224  # Zr
3 47.867  # Ti
4 15.999  # O

Angle Coeffs

1 0.0 180.00
2 0.0 180.00
3 0.0 180.00
4 0.0 180.00
5 0.0 180.00
6 0.0 180.00

Atoms

1 1 1 1.34730  0.0272460324    0.0103986825    0.0081394433
2 1 1 1.34730  8.0185609904    8.0159221043    4.0160351025
3 1 1 1.34730  4.0021731527    8.0195219638    0.0026224269
4 1 1 1.34730  4.0215306789    0.0165744855    4.0141617948
5 1 1 1.34730  0.0033728486    4.0096477945    0.0008435970
6 1 1 1.34730  8.0155343844    4.0132025058    4.0031159774
7 1 1 1.34730  4.0110610933    4.0169557282    0.0054330629
8 1 1 1.34730  4.0168127390    4.0065760706    4.0084757154
9 1 3  1.28904    2.0917329387    2.0808612727    1.9248397365
10 1 3 1.28904    2.0802699273    2.0867941384    5.9432719048
11 1 3 1.28904    6.1079565920    2.0885809624    1.9754084490
12 1 3 1.28904    6.0993521756    2.0802815242    6.0595520747
13 1 3 1.28904    2.0860965173    6.0938360804    2.0788513279
14 1 3 1.28904    2.0760410991    6.0846908408    6.0833432500
15 1 3 1.28904    6.1006815673    6.0921750362    1.9677581324
16 1 3 1.28904    6.0922075614    6.0960355828    6.0451706832
17 1 4 -0.87878    2.0097624594    2.0023644216    0.0047291315
18 1 4 -0.87878    2.0064009704    2.0109128928    4.0302761862
19 1 4 -0.87878    6.0271325398    2.0059941259    8.0232879451
20 1 4 -0.87878    6.0102809161    2.0145459659    4.0004714904
21 1 4 -0.87878    2.0180850684    6.0225513883    8.0127843334
22 1 4 -0.87878    2.0088998694    6.0199226127    4.0022279552
23 1 4 -0.87878    6.0159387168    6.0034544328    0.0044108339
24 1 4 -0.87878    6.0212327543    6.0077512145    4.0047521956
25 1 4 -0.87878    2.0148236015    0.0066069691    2.0065608240
26 1 4 -0.87878    2.0013711795    8.0133148401    6.0172215380
27 1 4 -0.87878    6.0148156828    8.0083244328    2.0013631970
28 1 4 -0.87878    6.0059839865    8.0197672914    6.0271824061
29 1 4 -0.87878    2.0150779807    4.0099464354    2.0161466950
30 1 4 -0.87878    1.9979962773    4.0141799983    6.0330854416
31 1 4 -0.87878    6.0150112023    4.0084689677    1.9996717885
32 1 4 -0.87878    6.0158482172    4.0055922098    6.0219376325
33 1 4 -0.87878    0.0005825876    1.9982116266    1.9994077661
34 1 4 -0.87878    0.0036663365    2.0138144907    6.0353679765
35 1 4 -0.87878    3.9961396515    2.0132225509    2.0114062204
36 1 4 -0.87878    4.0076155867    1.9960477438    6.0205875771
37 1 4 -0.87878    0.0040502999    6.0203458142    2.0047798747
38 1 4 -0.87878    8.0161821452    6.0213378080    6.0267530215
39 1 4 -0.87878    3.9994577799    6.0163787052    1.9948776247
40 1 4 -0.87878    4.0010556781    6.0266375798    6.0141333208

Angles

1 6 17 21 17
2 6 18 22 18
3 6 19 23 19
4 6 20 24 20
5 6 21 17 21
6 6 22 18 22
7 6 23 19 23
8 6 24 20 24
9 6 25 27 25
10 6 26 28 26
11 6 27 25 27
12 6 28 26 28
13 6 29 31 29
14 6 30 32 30
15 6 31 29 31
16 6 32 30 32
17 6 33 34 33
18 6 34 33 34
19 6 35 36 35
20 6 36 35 36
21 6 37 38 37
22 6 38 37 38
23 6 39 40 39
24 6 40 39 40
