#LAMMPS 100 water

40 atoms
24 angles
3 atom types
6 angle types

0.0 8.38649428 xlo xhi
0.0 8.38649428 ylo yhi
0.0 8.38649428 zlo zhi


Masses

1 137.327  #Ba
2 91.224 #Zr
3 15.9993  #o


Angle Coeffs

1 0.0 180.00
2 0.0 180.00
3 0.0 180.00
4 0.0 180.00
5 0.0 180.00
6 0.0 180.00

Atoms

1 1 1 0.0000000 0.0 0.0 0.0
2 1 1 0.0000000 4.19324714 0.0 0.0
3 1 1 0.0000000 0.0 4.19324714 0.0
4 1 1 0.0000000 4.19324714 4.19324714 0.0
5 1 1 0.0000000 0.0 0.0 4.19324714
6 1 1 0.0000000 4.19324714 0.0 4.19324714
7 1 1 0.0000000 0.0 4.19324714 4.19324714
8 1 1 0.0000000 4.19324714 4.19324714 4.19324714
9 1 2 5.0000000 2.09662357  2.09662357 2.09662357
10 1 2 5.0000000 6.28987071  2.09662357 2.09662357
11 1 2 5.0000000 2.09662357  6.28987071 2.09662357
12 1 2 5.0000000 6.28987071  6.28987071 2.09662357
13 1 2 5.0000000 2.09662357  2.09662357 6.28987071
14 1 2 5.0000000 6.28987071  2.09662357 6.28987071
15 1 2 5.0000000 2.09662357  6.28987071 6.28987071
16 1 2 5.0000000 6.28987071  6.28987071 6.28987071
17 1 3 0.0000000 2.09662357 2.09662357 0.0
18 1 3 0.0000000 6.28987071 2.09662357 0.0
19 1 3 0.0000000 2.09662357 6.28987071 0.0
20 1 3 0.0000000 6.28987071 6.28987071 0.0
21 1 3 0.0000000 2.09662357 2.09662357 4.19324714
22 1 3 0.0000000 6.28987071 2.09662357 4.19324714
23 1 3 0.0000000 2.09662357 6.28987071 4.19324714
24 1 3 0.0000000 6.28987071 6.28987071 4.19324714
25 1 3 0.0000000 2.09662357 0.0 2.09662357
26 1 3 0.0000000 6.28987071 0.0 2.09662357
27 1 3 0.0000000 2.09662357 4.19324714 2.09662357
28 1 3 0.0000000 6.28987071 4.19324714 2.09662357
29 1 3 0.0000000 2.09662357 0.0 6.28987071
30 1 3 0.0000000 6.28987071 0.0 6.28987071
31 1 3 0.0000000 2.09662357 4.19324714 6.28987071
32 1 3 0.0000000 6.28987071 4.19324714 6.28987071
33 1 3 0.0000000 0.0 2.09662357 2.09662357
34 1 3 0.0000000 4.19324714 2.09662357 2.09662357
35 1 3 0.0000000 0.0 6.28987071 2.09662357
36 1 3 0.0000000 4.19324714 6.28987071 2.09662357
37 1 3 0.0000000 0.0 2.09662357 6.28987071
38 1 3 0.0000000 4.19324714 2.09662357 6.28987071
39 1 3 0.0000000 0.0 6.28987071 6.28987071
40 1 3 0.0000000 4.19324714 6.28987071 6.28987071

Angles

1 6 17 21 17
2 6 18 22 18
3 6 19 23 19
4 6 20 24 20
5 6 21 17 21
6 6 22 18 22
7 6 23 19 23
8 6 24 20 24
9 6 25 27 25
10 6 26 28 26
11 6 27 25 27
12 6 28 26 28
13 6 29 31 29
14 6 30 32 30
15 6 31 29 31
16 6 32 30 32
17 6 33 34 33
18 6 34 33 34
19 6 35 36 35
20 6 36 35 36
21 6 37 38 37
22 6 38 37 38
23 6 39 40 39
24 6 40 39 40
